 Generated by Multiwfn (http://sobereva.com/multiwfn)
GAUSSIAN             84 MOL ORBITALS    587 PRIMITIVES       17 NUCLEI
  C    1    (CENTRE  1)   4.45232265  1.36455952 -0.01761913  CHARGE =  6.0
  C    2    (CENTRE  2)   4.40413397 -1.51301103  0.00355429  CHARGE =  6.0
  S    3    (CENTRE  3)   1.73045290  2.29965164 -0.01988013  CHARGE = 16.0
  S    4    (CENTRE  4)   1.65244760 -2.35626356  0.01436352  CHARGE = 16.0
  Ni   5    (CENTRE  5)   0.00000357  0.00001431  0.00001232  CHARGE = 28.0
  S    6    (CENTRE  6)  -1.73049788 -2.29971063  0.01974567  CHARGE = 16.0
  C    7    (CENTRE  7)  -4.45231548 -1.36453091  0.01764377  CHARGE =  6.0
  C    8    (CENTRE  8)  -4.40412681  1.51303967 -0.00352965  CHARGE =  6.0
  S    9    (CENTRE  9)  -1.65244043  2.35629219 -0.01433888  CHARGE = 16.0
  C   10    (CENTRE 10)   6.70391999 -3.24354478  0.01213901  CHARGE =  6.0
  N   11    (CENTRE 11)   8.57350261 -4.68513520 -0.02457716  CHARGE =  7.0
  C   12    (CENTRE 12)   6.80871046  3.01688224 -0.03383339  CHARGE =  6.0
  N   13    (CENTRE 13)   9.02315312  4.60006862  0.04622304  CHARGE =  7.0
  C   14    (CENTRE 14)  -6.80870330 -3.01685361  0.03385801  CHARGE =  6.0
  N   15    (CENTRE 15)  -9.02314595 -4.60004001 -0.04619840  CHARGE =  7.0
  C   16    (CENTRE 16)  -6.70387401  3.24340632 -0.01203506  CHARGE =  6.0
  N   17    (CENTRE 17)  -8.57349545  4.68516383  0.02460180  CHARGE =  7.0
CENTRE ASSIGNMENTS    1  1  1  1  1  1  1  1  1  1  1  1  1  1  1  1  1  1  1  1
CENTRE ASSIGNMENTS    1  1  1  1  1  1  2  2  2  2  2  2  2  2  2  2  2  2  2  2
CENTRE ASSIGNMENTS    2  2  2  2  2  2  2  2  2  2  2  2  3  3  3  3  3  3  3  3
CENTRE ASSIGNMENTS    3  3  3  3  3  3  3  3  3  3  3  3  3  3  3  3  3  3  3  3
CENTRE ASSIGNMENTS    3  3  3  3  3  3  3  3  3  3  3  3  3  3  3  3  3  3  3  3
CENTRE ASSIGNMENTS    3  3  4  4  4  4  4  4  4  4  4  4  4  4  4  4  4  4  4  4
CENTRE ASSIGNMENTS    4  4  4  4  4  4  4  4  4  4  4  4  4  4  4  4  4  4  4  4
CENTRE ASSIGNMENTS    4  4  4  4  4  4  4  4  4  4  4  4  5  5  5  5  5  5  5  5
CENTRE ASSIGNMENTS    5  5  5  5  5  5  5  5  5  5  5  5  5  5  5  5  5  5  5  5
CENTRE ASSIGNMENTS    5  5  5  5  5  5  5  5  5  5  5  5  5  5  5  5  5  5  5  5
CENTRE ASSIGNMENTS    5  5  5  5  5  5  5  5  5  5  5  5  5  5  5  5  5  5  5  5
CENTRE ASSIGNMENTS    5  5  5  5  5  5  5  6  6  6  6  6  6  6  6  6  6  6  6  6
CENTRE ASSIGNMENTS    6  6  6  6  6  6  6  6  6  6  6  6  6  6  6  6  6  6  6  6
CENTRE ASSIGNMENTS    6  6  6  6  6  6  6  6  6  6  6  6  6  6  6  6  6  7  7  7
CENTRE ASSIGNMENTS    7  7  7  7  7  7  7  7  7  7  7  7  7  7  7  7  7  7  7  7
CENTRE ASSIGNMENTS    7  7  7  8  8  8  8  8  8  8  8  8  8  8  8  8  8  8  8  8
CENTRE ASSIGNMENTS    8  8  8  8  8  8  8  8  8  9  9  9  9  9  9  9  9  9  9  9
CENTRE ASSIGNMENTS    9  9  9  9  9  9  9  9  9  9  9  9  9  9  9  9  9  9  9  9
CENTRE ASSIGNMENTS    9  9  9  9  9  9  9  9  9  9  9  9  9  9  9  9  9  9  9 10
CENTRE ASSIGNMENTS   10 10 10 10 10 10 10 10 10 10 10 10 10 10 10 10 10 10 10 10
CENTRE ASSIGNMENTS   10 10 10 10 10 11 11 11 11 11 11 11 11 11 11 11 11 11 11 11
CENTRE ASSIGNMENTS   11 11 11 11 11 11 11 11 11 11 11 12 12 12 12 12 12 12 12 12
CENTRE ASSIGNMENTS   12 12 12 12 12 12 12 12 12 12 12 12 12 12 12 12 12 13 13 13
CENTRE ASSIGNMENTS   13 13 13 13 13 13 13 13 13 13 13 13 13 13 13 13 13 13 13 13
CENTRE ASSIGNMENTS   13 13 13 14 14 14 14 14 14 14 14 14 14 14 14 14 14 14 14 14
CENTRE ASSIGNMENTS   14 14 14 14 14 14 14 14 14 15 15 15 15 15 15 15 15 15 15 15
CENTRE ASSIGNMENTS   15 15 15 15 15 15 15 15 15 15 15 15 15 15 15 16 16 16 16 16
CENTRE ASSIGNMENTS   16 16 16 16 16 16 16 16 16 16 16 16 16 16 16 16 16 16 16 16
CENTRE ASSIGNMENTS   16 17 17 17 17 17 17 17 17 17 17 17 17 17 17 17 17 17 17 17
CENTRE ASSIGNMENTS   17 17 17 17 17 17 17
TYPE ASSIGNMENTS      1  1  1  1  1  1  1  1  1  2  2  2  3  3  3  4  4  4  1  2
TYPE ASSIGNMENTS      3  4  1  2  3  4  1  1  1  1  1  1  1  1  1  2  2  2  3  3
TYPE ASSIGNMENTS      3  4  4  4  1  2  3  4  1  2  3  4  1  1  1  1  1  1  1  1
TYPE ASSIGNMENTS      1  1  1  1  2  2  2  2  2  2  3  3  3  3  3  3  4  4  4  4
TYPE ASSIGNMENTS      4  4  1  1  1  2  2  2  3  3  3  4  4  4  1  2  3  4  1  2
TYPE ASSIGNMENTS      3  4  1  1  1  1  1  1  1  1  1  1  1  1  2  2  2  2  2  2
TYPE ASSIGNMENTS      3  3  3  3  3  3  4  4  4  4  4  4  1  1  1  2  2  2  3  3
TYPE ASSIGNMENTS      3  4  4  4  1  2  3  4  1  2  3  4  1  1  1  1  1  1  1  1
TYPE ASSIGNMENTS      2  2  3  3  4  4  2  2  3  3  4  4  2  3  4  2  3  4  2  3
TYPE ASSIGNMENTS      4  5  5  5  5  6  6  6  6  7  7  7  7  8  8  8  8  9  9  9
TYPE ASSIGNMENTS      9 10 10 10 10  5  6  7  8  9 10  5  6  7  8  9 10 11 12 13
TYPE ASSIGNMENTS     17 14 15 18 19 16 20  1  1  1  1  1  1  1  1  1  1  1  1  2
TYPE ASSIGNMENTS      2  2  2  2  2  3  3  3  3  3  3  4  4  4  4  4  4  1  1  1
TYPE ASSIGNMENTS      2  2  2  3  3  3  4  4  4  1  2  3  4  1  2  3  4  1  1  1
TYPE ASSIGNMENTS      1  1  1  1  1  1  2  2  2  3  3  3  4  4  4  1  2  3  4  1
TYPE ASSIGNMENTS      2  3  4  1  1  1  1  1  1  1  1  1  2  2  2  3  3  3  4  4
TYPE ASSIGNMENTS      4  1  2  3  4  1  2  3  4  1  1  1  1  1  1  1  1  1  1  1
TYPE ASSIGNMENTS      1  2  2  2  2  2  2  3  3  3  3  3  3  4  4  4  4  4  4  1
TYPE ASSIGNMENTS      1  1  2  2  2  3  3  3  4  4  4  1  2  3  4  1  2  3  4  1
TYPE ASSIGNMENTS      1  1  1  1  1  1  1  1  2  2  2  3  3  3  4  4  4  1  2  3
TYPE ASSIGNMENTS      4  1  2  3  4  1  1  1  1  1  1  1  1  1  2  2  2  3  3  3
TYPE ASSIGNMENTS      4  4  4  1  2  3  4  1  2  3  4  1  1  1  1  1  1  1  1  1
TYPE ASSIGNMENTS      2  2  2  3  3  3  4  4  4  1  2  3  4  1  2  3  4  1  1  1
TYPE ASSIGNMENTS      1  1  1  1  1  1  2  2  2  3  3  3  4  4  4  1  2  3  4  1
TYPE ASSIGNMENTS      2  3  4  1  1  1  1  1  1  1  1  1  2  2  2  3  3  3  4  4
TYPE ASSIGNMENTS      4  1  2  3  4  1  2  3  4  1  1  1  1  1  1  1  1  1  2  2
TYPE ASSIGNMENTS      2  3  3  3  4  4  4  1  2  3  4  1  2  3  4  1  1  1  1  1
TYPE ASSIGNMENTS      1  1  1  1  2  2  2  3  3  3  4  4  4  1  2  3  4  1  2  3
TYPE ASSIGNMENTS      4  1  1  1  1  1  1  1  1  1  2  2  2  3  3  3  4  4  4  1
TYPE ASSIGNMENTS      2  3  4  1  2  3  4
EXPONENTS  0.3047525D+04 0.4573695D+03 0.1039487D+03 0.2921016D+02 0.9286663D+01
EXPONENTS  0.3163927D+01 0.7868272D+01 0.1881289D+01 0.5442493D+00 0.7868272D+01
EXPONENTS  0.1881289D+01 0.5442493D+00 0.7868272D+01 0.1881289D+01 0.5442493D+00
EXPONENTS  0.7868272D+01 0.1881289D+01 0.5442493D+00 0.1687145D+00 0.1687145D+00
EXPONENTS  0.1687145D+00 0.1687145D+00 0.4380000D-01 0.4380000D-01 0.4380000D-01
EXPONENTS  0.4380000D-01 0.3047525D+04 0.4573695D+03 0.1039487D+03 0.2921016D+02
EXPONENTS  0.9286663D+01 0.3163927D+01 0.7868272D+01 0.1881289D+01 0.5442493D+00
EXPONENTS  0.7868272D+01 0.1881289D+01 0.5442493D+00 0.7868272D+01 0.1881289D+01
EXPONENTS  0.5442493D+00 0.7868272D+01 0.1881289D+01 0.5442493D+00 0.1687145D+00
EXPONENTS  0.1687145D+00 0.1687145D+00 0.1687145D+00 0.4380000D-01 0.4380000D-01
EXPONENTS  0.4380000D-01 0.4380000D-01 0.2191710D+05 0.3301490D+04 0.7541460D+03
EXPONENTS  0.2127110D+03 0.6798960D+02 0.2305150D+02 0.4237350D+03 0.1007100D+03
EXPONENTS  0.3215990D+02 0.1180790D+02 0.4631100D+01 0.1870250D+01 0.4237350D+03
EXPONENTS  0.1007100D+03 0.3215990D+02 0.1180790D+02 0.4631100D+01 0.1870250D+01
EXPONENTS  0.4237350D+03 0.1007100D+03 0.3215990D+02 0.1180790D+02 0.4631100D+01
EXPONENTS  0.1870250D+01 0.4237350D+03 0.1007100D+03 0.3215990D+02 0.1180790D+02
EXPONENTS  0.4631100D+01 0.1870250D+01 0.2615840D+01 0.9221670D+00 0.3412870D+00
EXPONENTS  0.2615840D+01 0.9221670D+00 0.3412870D+00 0.2615840D+01 0.9221670D+00
EXPONENTS  0.3412870D+00 0.2615840D+01 0.9221670D+00 0.3412870D+00 0.1171670D+00
EXPONENTS  0.1171670D+00 0.1171670D+00 0.1171670D+00 0.4050000D-01 0.4050000D-01
EXPONENTS  0.4050000D-01 0.4050000D-01 0.2191710D+05 0.3301490D+04 0.7541460D+03
EXPONENTS  0.2127110D+03 0.6798960D+02 0.2305150D+02 0.4237350D+03 0.1007100D+03
EXPONENTS  0.3215990D+02 0.1180790D+02 0.4631100D+01 0.1870250D+01 0.4237350D+03
EXPONENTS  0.1007100D+03 0.3215990D+02 0.1180790D+02 0.4631100D+01 0.1870250D+01
EXPONENTS  0.4237350D+03 0.1007100D+03 0.3215990D+02 0.1180790D+02 0.4631100D+01
EXPONENTS  0.1870250D+01 0.4237350D+03 0.1007100D+03 0.3215990D+02 0.1180790D+02
EXPONENTS  0.4631100D+01 0.1870250D+01 0.2615840D+01 0.9221670D+00 0.3412870D+00
EXPONENTS  0.2615840D+01 0.9221670D+00 0.3412870D+00 0.2615840D+01 0.9221670D+00
EXPONENTS  0.3412870D+00 0.2615840D+01 0.9221670D+00 0.3412870D+00 0.1171670D+00
EXPONENTS  0.1171670D+00 0.1171670D+00 0.1171670D+00 0.4050000D-01 0.4050000D-01
EXPONENTS  0.4050000D-01 0.4050000D-01 0.2345799D+02 0.1486939D+02 0.8054154D+01
EXPONENTS  0.2319824D+01 0.9234620D+00 0.1099550D+00 0.4013400D-01 0.1000000D-01
EXPONENTS  0.7803878D+02 0.1477444D+02 0.7803878D+02 0.1477444D+02 0.7803878D+02
EXPONENTS  0.1477444D+02 0.6151352D+01 0.2496421D+01 0.6151352D+01 0.2496421D+01
EXPONENTS  0.6151352D+01 0.2496421D+01 0.8667020D+00 0.8667020D+00 0.8667020D+00
EXPONENTS  0.1264990D+00 0.1264990D+00 0.1264990D+00 0.3178400D-01 0.3178400D-01
EXPONENTS  0.3178400D-01 0.4078905D+02 0.1234760D+02 0.4207049D+01 0.1375413D+01
EXPONENTS  0.4078905D+02 0.1234760D+02 0.4207049D+01 0.1375413D+01 0.4078905D+02
EXPONENTS  0.1234760D+02 0.4207049D+01 0.1375413D+01 0.4078905D+02 0.1234760D+02
EXPONENTS  0.4207049D+01 0.1375413D+01 0.4078905D+02 0.1234760D+02 0.4207049D+01
EXPONENTS  0.1375413D+01 0.4078905D+02 0.1234760D+02 0.4207049D+01 0.1375413D+01
EXPONENTS  0.3761470D+00 0.3761470D+00 0.3761470D+00 0.3761470D+00 0.3761470D+00
EXPONENTS  0.3761470D+00 0.9000000D-01 0.9000000D-01 0.9000000D-01 0.9000000D-01
EXPONENTS  0.9000000D-01 0.9000000D-01 0.2400000D+01 0.2400000D+01 0.2400000D+01
EXPONENTS  0.2400000D+01 0.2400000D+01 0.2400000D+01 0.2400000D+01 0.2400000D+01
EXPONENTS  0.2400000D+01 0.2400000D+01 0.2191710D+05 0.3301490D+04 0.7541460D+03
EXPONENTS  0.2127110D+03 0.6798960D+02 0.2305150D+02 0.4237350D+03 0.1007100D+03
EXPONENTS  0.3215990D+02 0.1180790D+02 0.4631100D+01 0.1870250D+01 0.4237350D+03
EXPONENTS  0.1007100D+03 0.3215990D+02 0.1180790D+02 0.4631100D+01 0.1870250D+01
EXPONENTS  0.4237350D+03 0.1007100D+03 0.3215990D+02 0.1180790D+02 0.4631100D+01
EXPONENTS  0.1870250D+01 0.4237350D+03 0.1007100D+03 0.3215990D+02 0.1180790D+02
EXPONENTS  0.4631100D+01 0.1870250D+01 0.2615840D+01 0.9221670D+00 0.3412870D+00
EXPONENTS  0.2615840D+01 0.9221670D+00 0.3412870D+00 0.2615840D+01 0.9221670D+00
EXPONENTS  0.3412870D+00 0.2615840D+01 0.9221670D+00 0.3412870D+00 0.1171670D+00
EXPONENTS  0.1171670D+00 0.1171670D+00 0.1171670D+00 0.4050000D-01 0.4050000D-01
EXPONENTS  0.4050000D-01 0.4050000D-01 0.3047525D+04 0.4573695D+03 0.1039487D+03
EXPONENTS  0.2921016D+02 0.9286663D+01 0.3163927D+01 0.7868272D+01 0.1881289D+01
EXPONENTS  0.5442493D+00 0.7868272D+01 0.1881289D+01 0.5442493D+00 0.7868272D+01
EXPONENTS  0.1881289D+01 0.5442493D+00 0.7868272D+01 0.1881289D+01 0.5442493D+00
EXPONENTS  0.1687145D+00 0.1687145D+00 0.1687145D+00 0.1687145D+00 0.4380000D-01
EXPONENTS  0.4380000D-01 0.4380000D-01 0.4380000D-01 0.3047525D+04 0.4573695D+03
EXPONENTS  0.1039487D+03 0.2921016D+02 0.9286663D+01 0.3163927D+01 0.7868272D+01
EXPONENTS  0.1881289D+01 0.5442493D+00 0.7868272D+01 0.1881289D+01 0.5442493D+00
EXPONENTS  0.7868272D+01 0.1881289D+01 0.5442493D+00 0.7868272D+01 0.1881289D+01
EXPONENTS  0.5442493D+00 0.1687145D+00 0.1687145D+00 0.1687145D+00 0.1687145D+00
EXPONENTS  0.4380000D-01 0.4380000D-01 0.4380000D-01 0.4380000D-01 0.2191710D+05
EXPONENTS  0.3301490D+04 0.7541460D+03 0.2127110D+03 0.6798960D+02 0.2305150D+02
EXPONENTS  0.4237350D+03 0.1007100D+03 0.3215990D+02 0.1180790D+02 0.4631100D+01
EXPONENTS  0.1870250D+01 0.4237350D+03 0.1007100D+03 0.3215990D+02 0.1180790D+02
EXPONENTS  0.4631100D+01 0.1870250D+01 0.4237350D+03 0.1007100D+03 0.3215990D+02
EXPONENTS  0.1180790D+02 0.4631100D+01 0.1870250D+01 0.4237350D+03 0.1007100D+03
EXPONENTS  0.3215990D+02 0.1180790D+02 0.4631100D+01 0.1870250D+01 0.2615840D+01
EXPONENTS  0.9221670D+00 0.3412870D+00 0.2615840D+01 0.9221670D+00 0.3412870D+00
EXPONENTS  0.2615840D+01 0.9221670D+00 0.3412870D+00 0.2615840D+01 0.9221670D+00
EXPONENTS  0.3412870D+00 0.1171670D+00 0.1171670D+00 0.1171670D+00 0.1171670D+00
EXPONENTS  0.4050000D-01 0.4050000D-01 0.4050000D-01 0.4050000D-01 0.3047525D+04
EXPONENTS  0.4573695D+03 0.1039487D+03 0.2921016D+02 0.9286663D+01 0.3163927D+01
EXPONENTS  0.7868272D+01 0.1881289D+01 0.5442493D+00 0.7868272D+01 0.1881289D+01
EXPONENTS  0.5442493D+00 0.7868272D+01 0.1881289D+01 0.5442493D+00 0.7868272D+01
EXPONENTS  0.1881289D+01 0.5442493D+00 0.1687145D+00 0.1687145D+00 0.1687145D+00
EXPONENTS  0.1687145D+00 0.4380000D-01 0.4380000D-01 0.4380000D-01 0.4380000D-01
EXPONENTS  0.4173511D+04 0.6274579D+03 0.1429021D+03 0.4023433D+02 0.1282021D+02
EXPONENTS  0.4390437D+01 0.1162636D+02 0.2716280D+01 0.7722184D+00 0.1162636D+02
EXPONENTS  0.2716280D+01 0.7722184D+00 0.1162636D+02 0.2716280D+01 0.7722184D+00
EXPONENTS  0.1162636D+02 0.2716280D+01 0.7722184D+00 0.2120315D+00 0.2120315D+00
EXPONENTS  0.2120315D+00 0.2120315D+00 0.6390000D-01 0.6390000D-01 0.6390000D-01
EXPONENTS  0.6390000D-01 0.3047525D+04 0.4573695D+03 0.1039487D+03 0.2921016D+02
EXPONENTS  0.9286663D+01 0.3163927D+01 0.7868272D+01 0.1881289D+01 0.5442493D+00
EXPONENTS  0.7868272D+01 0.1881289D+01 0.5442493D+00 0.7868272D+01 0.1881289D+01
EXPONENTS  0.5442493D+00 0.7868272D+01 0.1881289D+01 0.5442493D+00 0.1687145D+00
EXPONENTS  0.1687145D+00 0.1687145D+00 0.1687145D+00 0.4380000D-01 0.4380000D-01
EXPONENTS  0.4380000D-01 0.4380000D-01 0.4173511D+04 0.6274579D+03 0.1429021D+03
EXPONENTS  0.4023433D+02 0.1282021D+02 0.4390437D+01 0.1162636D+02 0.2716280D+01
EXPONENTS  0.7722184D+00 0.1162636D+02 0.2716280D+01 0.7722184D+00 0.1162636D+02
EXPONENTS  0.2716280D+01 0.7722184D+00 0.1162636D+02 0.2716280D+01 0.7722184D+00
EXPONENTS  0.2120315D+00 0.2120315D+00 0.2120315D+00 0.2120315D+00 0.6390000D-01
EXPONENTS  0.6390000D-01 0.6390000D-01 0.6390000D-01 0.3047525D+04 0.4573695D+03
EXPONENTS  0.1039487D+03 0.2921016D+02 0.9286663D+01 0.3163927D+01 0.7868272D+01
EXPONENTS  0.1881289D+01 0.5442493D+00 0.7868272D+01 0.1881289D+01 0.5442493D+00
EXPONENTS  0.7868272D+01 0.1881289D+01 0.5442493D+00 0.7868272D+01 0.1881289D+01
EXPONENTS  0.5442493D+00 0.1687145D+00 0.1687145D+00 0.1687145D+00 0.1687145D+00
EXPONENTS  0.4380000D-01 0.4380000D-01 0.4380000D-01 0.4380000D-01 0.4173511D+04
EXPONENTS  0.6274579D+03 0.1429021D+03 0.4023433D+02 0.1282021D+02 0.4390437D+01
EXPONENTS  0.1162636D+02 0.2716280D+01 0.7722184D+00 0.1162636D+02 0.2716280D+01
EXPONENTS  0.7722184D+00 0.1162636D+02 0.2716280D+01 0.7722184D+00 0.1162636D+02
EXPONENTS  0.2716280D+01 0.7722184D+00 0.2120315D+00 0.2120315D+00 0.2120315D+00
EXPONENTS  0.2120315D+00 0.6390000D-01 0.6390000D-01 0.6390000D-01 0.6390000D-01
EXPONENTS  0.3047525D+04 0.4573695D+03 0.1039487D+03 0.2921016D+02 0.9286663D+01
EXPONENTS  0.3163927D+01 0.7868272D+01 0.1881289D+01 0.5442493D+00 0.7868272D+01
EXPONENTS  0.1881289D+01 0.5442493D+00 0.7868272D+01 0.1881289D+01 0.5442493D+00
EXPONENTS  0.7868272D+01 0.1881289D+01 0.5442493D+00 0.1687145D+00 0.1687145D+00
EXPONENTS  0.1687145D+00 0.1687145D+00 0.4380000D-01 0.4380000D-01 0.4380000D-01
EXPONENTS  0.4380000D-01 0.4173511D+04 0.6274579D+03 0.1429021D+03 0.4023433D+02
EXPONENTS  0.1282021D+02 0.4390437D+01 0.1162636D+02 0.2716280D+01 0.7722184D+00
EXPONENTS  0.1162636D+02 0.2716280D+01 0.7722184D+00 0.1162636D+02 0.2716280D+01
EXPONENTS  0.7722184D+00 0.1162636D+02 0.2716280D+01 0.7722184D+00 0.2120315D+00
EXPONENTS  0.2120315D+00 0.2120315D+00 0.2120315D+00 0.6390000D-01 0.6390000D-01
EXPONENTS  0.6390000D-01 0.6390000D-01
MO    1     MO 0.0        OCC NO =    2.0000000  ORB. ENERGY =  -88.448298
  0.50942821D-05  0.93979557D-05  0.15171215D-04  0.19748414D-04  0.16851357D-04
  0.58183686D-05 -0.22813406D-04 -0.10514678D-04  0.29484255D-04 -0.11634947D-03
 -0.89209397D-04 -0.44521742D-04 -0.42841304D-04 -0.32847995D-04 -0.16393452D-04
  0.22562225D-05  0.17299283D-05  0.86335545D-06  0.13782281D-03  0.21391249D-03
  0.17538739D-03 -0.26789335D-05 -0.14554630D-02  0.96625984D-03  0.66490381D-03
 -0.50827779D-05 -0.17033448D-04 -0.31423386D-04 -0.50727088D-04 -0.66031596D-04
 -0.56344880D-04 -0.19454533D-04 -0.24168869D-04 -0.11139410D-04  0.31236067D-04
 -0.21668036D-03 -0.16613676D-03 -0.82913885D-04 -0.35736234D-04 -0.27400277D-04
 -0.13674659D-04  0.11330547D-05  0.86875451D-06  0.43356939D-06 -0.39808915D-04
 -0.11005581D-04  0.23971358D-04 -0.21050616D-06  0.35051099D-02 -0.30649037D-03
  0.27149152D-03 -0.19944387D-05 -0.20223189D-01 -0.37225780D-01 -0.60241800D-01
 -0.79781911D-01 -0.68730929D-01 -0.21361583D-01 -0.42455474D-05 -0.19270527D-04
 -0.29268932D-04  0.68334611D-05  0.35760011D-04  0.13917706D-04  0.21024475D-03
  0.26359531D-03  0.26904027D-03  0.19286745D-03  0.82848321D-04  0.15080265D-04
  0.96370114D-04  0.12082447D-03  0.12332028D-03  0.88404863D-04  0.37975274D-04
  0.69123573D-05 -0.10449054D-05 -0.13100549D-05 -0.13371161D-05 -0.95854116D-06
 -0.41175182D-06 -0.74948128D-07 -0.44361024D-03  0.54275912D-04  0.40559675D-03
 -0.31584353D-05  0.18344995D-04  0.12877299D-04  0.12866370D-04 -0.74731144D-04
 -0.52457648D-04 -0.15035977D-06  0.87332778D-06  0.61303386D-06 -0.32820235D-02
  0.24783405D-03  0.46563684D-03 -0.38548897D-05 -0.20366339D-02  0.73396620D-03
 -0.15448280D-04 -0.16778183D-05  0.17569609D+01  0.32341209D+01  0.52337187D+01
  0.69313348D+01  0.59712417D+01  0.18558628D+01 -0.13413318D-02 -0.60883008D-02
 -0.92471816D-02  0.21589533D-02  0.11297963D-01  0.43971388D-02 -0.36147749D-03
 -0.45320405D-03 -0.46256566D-03 -0.33160040D-03 -0.14244257D-03 -0.25927764D-04
  0.18580883D-02  0.23295867D-02  0.23777078D-02  0.17045123D-02  0.73219188D-03
  0.13327545D-03  0.13751429D-03  0.17240917D-03  0.17597053D-03  0.12614836D-03
  0.54188406D-04  0.98635134D-05  0.24516558D-02 -0.29996118D-03 -0.22415704D-02
 -0.30870073D-04  0.17930123D-03  0.12586079D-03  0.71464746D-04 -0.41508541D-03
 -0.29136988D-03 -0.14200114D-07  0.82477871D-07  0.57895475D-07  0.42805193D-02
 -0.35169255D-03  0.62252581D-03 -0.32682327D-05  0.99416510D-03 -0.43137578D-03
 -0.99802450D-04  0.82455111D-06 -0.13787936D-03  0.16872299D-03  0.12977502D-03
 -0.31064769D-04 -0.27825189D-03 -0.26825919D-03  0.40052703D-02 -0.90361439D-05
 -0.22256657D-04  0.10415581D-03  0.28733542D-04 -0.13446607D-03 -0.18292080D-06
  0.85602535D-06 -0.24261545D-04 -0.32412050D-04  0.31388104D-04  0.41932728D-04
 -0.19958541D-06 -0.26663480D-06  0.18380692D-04 -0.23683542D-04  0.14896635D-06
 -0.54630215D-05 -0.62980171D-05  0.22740374D-07 -0.78873802D-05  0.51927665D-05
 -0.29117910D-07 -0.88478345D-03 -0.54476054D-03 -0.19151812D-03 -0.34289400D-04
 -0.90782712D-03 -0.55894850D-03 -0.19650609D-03 -0.35182447D-04  0.17926106D-02
  0.11037090D-02  0.38802421D-03  0.69471846D-04  0.23880200D-02  0.14703022D-02
  0.51690511D-03  0.92546681D-04 -0.80796296D-05 -0.49746222D-05 -0.17488974D-05
 -0.31312255D-06  0.45791019D-04  0.28193498D-04  0.99118148D-05  0.17746111D-05
  0.24361990D-04  0.22100390D-03 -0.24536589D-03 -0.63694913D-03  0.37930660D-05
 -0.62751186D-05  0.56166513D-04 -0.37607570D-04 -0.18558942D-04  0.97113818D-03
 -0.72570199D-05 -0.14353102D-05 -0.18298773D-04 -0.70021654D-05 -0.43508087D-06
  0.10272182D-03 -0.43196111D-04  0.30852331D-06 -0.47825504D-04  0.64202607D-04
  0.99671929D-06 -0.19990978D-05 -0.20785277D-01 -0.38260442D-01 -0.61916174D-01
 -0.81999388D-01 -0.70641252D-01 -0.21955311D-01 -0.31043215D-05 -0.14090506D-04
 -0.21401286D-04  0.49965901D-05  0.26147528D-04  0.10176552D-04 -0.25160414D-03
 -0.31544984D-03 -0.32196592D-03 -0.23080838D-03 -0.99146259D-04 -0.18046858D-04
 -0.86771204D-04 -0.10878979D-03 -0.11103701D-03 -0.79599329D-04 -0.34192761D-04
 -0.62238545D-05  0.85879628D-06  0.10767197D-05  0.10989610D-05  0.78781444D-06
  0.33841430D-06  0.61599043D-07 -0.44016790D-03  0.53854739D-04  0.40244938D-03
  0.19786848D-05 -0.11492704D-04 -0.80673224D-05 -0.12279901D-04  0.71324786D-04
  0.50066549D-04  0.14331260D-06 -0.83239600D-06 -0.58430173D-06 -0.33181173D-02
 -0.26161287D-03 -0.47147092D-03  0.38482510D-05 -0.16171566D-02 -0.68555648D-03
  0.16831042D-04  0.16555163D-05  0.48990139D-05  0.90377240D-05  0.14589689D-04
  0.18991440D-04  0.16205430D-04  0.55953456D-05 -0.23739138D-04 -0.10941347D-04
  0.30680679D-04  0.10884848D-03  0.83458109D-04  0.41651446D-04  0.41956754D-04
  0.32169778D-04  0.16054974D-04 -0.21535771D-05 -0.16512263D-05 -0.82407766D-06
  0.12855349D-03 -0.19179321D-03 -0.16106822D-03  0.24608014D-05 -0.15251960D-02
 -0.10332112D-02 -0.69294182D-03  0.53086923D-05 -0.15374568D-04 -0.28363076D-04
 -0.45786799D-04 -0.59600808D-04 -0.50857478D-04 -0.17559865D-04 -0.25771959D-04
 -0.11878272D-04  0.33307915D-04  0.20631741D-03  0.15819111D-03  0.78948449D-04
  0.30444428D-04  0.23342856D-04  0.11649721D-04 -0.10663109D-05 -0.81757954D-06
 -0.40802949D-06 -0.45253783D-04 -0.70846592D-05 -0.13650717D-04  0.15340434D-06
  0.37002739D-02  0.41284849D-03 -0.30627562D-03  0.21340816D-05  0.16224623D+01
  0.29865431D+01  0.48330681D+01  0.64007286D+01  0.55141324D+01  0.17137932D+01
 -0.12359847D-02 -0.56101309D-02 -0.85209159D-02  0.19893909D-02  0.10410631D-01
  0.40517913D-02  0.35410236D-03  0.44395745D-03  0.45312805D-03  0.32483484D-03
  0.13953636D-03  0.25398767D-04 -0.17452706D-02 -0.21881409D-02 -0.22333402D-02
 -0.16010192D-02 -0.68773530D-03 -0.12518335D-03 -0.12704128D-03 -0.15927858D-03
 -0.16256872D-03 -0.11654097D-03 -0.50061448D-04 -0.91123139D-05  0.23123507D-02
 -0.28291714D-03 -0.21142026D-02  0.30802007D-04 -0.17890588D-03 -0.12558327D-03
 -0.69268574D-04  0.40232948D-03  0.28241583D-03  0.24012062D-07 -0.13946816D-06
 -0.97899900D-07  0.41955546D-02  0.34171696D-03 -0.61851984D-03  0.32729859D-05
  0.91158060D-03  0.52980786D-03  0.11716268D-03 -0.12286236D-05  0.10502979D-05
  0.19375946D-05  0.31278785D-05  0.40715684D-05  0.34742767D-05  0.11995843D-05
 -0.15998365D-04 -0.73736316D-05  0.20676433D-04 -0.65641874D-05 -0.50330025D-05
 -0.25118210D-05  0.24195318D-04  0.18551435D-04  0.92584665D-05 -0.46157425D-06
 -0.35390586D-06 -0.17662383D-06 -0.40210068D-06 -0.23903481D-04  0.89390138D-05
  0.83627786D-07  0.14553277D-03  0.55890860D-05 -0.45653954D-04  0.13256168D-05
 -0.27634594D-06 -0.50891413D-06 -0.82226659D-06 -0.10761702D-05 -0.92183623D-06
 -0.31712234D-06  0.35231002D-05  0.17416475D-05 -0.45943546D-05 -0.11906451D-05
 -0.92693620D-06 -0.44014210D-06  0.23580442D-04  0.18357751D-04  0.87169093D-05
 -0.20068894D-05 -0.15623954D-05 -0.74188062D-06  0.21627319D-04 -0.25393662D-05
 -0.47720767D-05  0.11357841D-05  0.38518553D-05 -0.72355295D-05  0.17916969D-04
 -0.10371949D-05  0.75414352D-05  0.13912475D-04  0.22459049D-04  0.29235009D-04
  0.24946286D-04  0.86133530D-05 -0.47003577D-04 -0.21663906D-04  0.60747853D-04
  0.87197680D-05  0.66857651D-05  0.33366653D-05 -0.39975737D-05 -0.30650860D-05
 -0.15296927D-05  0.33078091D-05  0.25362182D-05  0.12657506D-05 -0.20719264D-03
  0.18329469D-03  0.12815688D-03 -0.64462236D-06 -0.37650392D-02  0.31178866D-03
  0.15950847D-03 -0.35164205D-05  0.48710993D-05  0.89705363D-05  0.14493943D-04
  0.18969455D-04  0.16249039D-04  0.55898575D-05 -0.34440131D-04 -0.17025508D-04
  0.44912199D-04 -0.18213154D-05 -0.14179231D-05 -0.67328004D-06 -0.26752704D-05
 -0.20827407D-05 -0.98895896D-06  0.39828373D-06  0.31007025D-06  0.14723232D-06
 -0.15642081D-03  0.54245925D-04  0.39422254D-04  0.30208818D-05  0.10060977D-03
 -0.35493468D-04 -0.10888425D-04  0.77628903D-06  0.73465800D-05  0.13553006D-04
  0.21878753D-04  0.28479636D-04  0.24301725D-04  0.83908017D-05 -0.46915932D-04
 -0.21623510D-04  0.60634580D-04 -0.81075003D-05 -0.62163170D-05 -0.31023778D-05
  0.50333330D-05  0.38592405D-05  0.19260315D-05 -0.34328367D-05 -0.26320815D-05
 -0.13135931D-05 -0.19391930D-03 -0.16855434D-03 -0.11739067D-03  0.75516853D-06
 -0.39155968D-02 -0.32019016D-03 -0.16759648D-03  0.36334711D-05  0.45154197D-05
  0.83155226D-05  0.13435619D-04  0.17584337D-04  0.15062561D-04  0.51816954D-05
 -0.31827684D-04 -0.15734042D-04  0.41505395D-04  0.22208496D-05  0.17289669D-05
  0.82097463D-06  0.45246078D-05  0.35224794D-05  0.16725978D-05 -0.63852368D-06
 -0.49710088D-06 -0.23604108D-06 -0.14453372D-03 -0.49882520D-04 -0.37008334D-04
 -0.26693793D-05  0.10288360D-03  0.35748592D-04  0.11030758D-04 -0.79159533D-06
  0.11651379D-05  0.21494519D-05  0.34698819D-05  0.45167552D-05  0.38541554D-05
  0.13307472D-05 -0.16155667D-04 -0.74461322D-05  0.20879732D-04  0.88071160D-05
  0.67527380D-05  0.33700895D-05 -0.23700557D-04 -0.18172084D-04 -0.90691436D-05
  0.23070759D-06  0.17689195D-06  0.88281480D-07 -0.75623413D-05  0.11163919D-04
  0.26864661D-06  0.38223557D-07  0.50705037D-03  0.21177323D-04  0.26980515D-04
 -0.11544524D-05 -0.33620593D-06 -0.61915131D-06 -0.10003798D-05 -0.13092822D-05
 -0.11215175D-05 -0.38581502D-06  0.47408534D-05  0.23436449D-05 -0.61823850D-05
  0.11081999D-05  0.86275134D-06  0.40966485D-06 -0.21797973D-04 -0.16970070D-04
 -0.80579896D-05  0.18179846D-05  0.14153300D-05  0.67204876D-06  0.15573689D-04
 -0.45423437D-06  0.64969061D-05 -0.94604651D-06 -0.23819725D-04  0.23010424D-05
 -0.14850046D-04  0.10310394D-05
MO    2     MO 0.0        OCC NO =    2.0000000  ORB. ENERGY =  -88.448270
 -0.22335164D-05 -0.41204017D-05 -0.66516059D-05 -0.86584144D-05 -0.73882407D-05
 -0.25509820D-05 -0.12616521D-04 -0.58149428D-05  0.16305707D-04  0.89829243D-04
  0.68875366D-04  0.34373635D-04  0.94211629D-05  0.72235502D-05  0.36050578D-05
 -0.11783461D-05 -0.90348106D-06 -0.45090037D-06 -0.11134997D-03 -0.26976363D-03
 -0.17320207D-03  0.25819236D-05 -0.93764397D-03  0.88036606D-03  0.37864532D-03
 -0.29821231D-05  0.20178619D-04  0.37225612D-04  0.60093680D-04  0.78224116D-04
  0.66748780D-04  0.23046750D-04 -0.21056205D-04 -0.97047855D-05  0.27213232D-04
  0.12179291D-03  0.93383079D-04  0.46604701D-04  0.65145904D-04  0.49949747D-04
  0.24928425D-04 -0.89022324D-06 -0.68256671D-06 -0.34064863D-06 -0.69713177D-04
  0.22715735D-03 -0.12889827D-03  0.75951819D-06  0.25941589D-02 -0.13513854D-02
  0.44844691D-03 -0.17094592D-05 -0.92926867D-02 -0.17105488D-01 -0.27681498D-01
 -0.36660306D-01 -0.31582308D-01 -0.98157859D-02  0.15303736D-04  0.69463612D-04
  0.10550442D-03 -0.24632274D-04 -0.12890252D-03 -0.50168537D-04  0.52911919D-03
  0.66338560D-03  0.67708881D-03  0.48538606D-03  0.20850288D-03  0.37952232D-04
 -0.11656176D-03 -0.14613984D-03 -0.14915857D-03 -0.10692762D-03 -0.45931925D-04
 -0.83606474D-05  0.96382933D-06  0.12084054D-05  0.12333668D-05  0.88416623D-06
  0.37980326D-06  0.69132768D-07  0.24273610D-04 -0.29698870D-05 -0.22193575D-04
  0.14719695D-04 -0.85495730D-04 -0.60013867D-04 -0.68705633D-05  0.39905978D-04
  0.28012066D-04  0.26315808D-07 -0.15284890D-06 -0.10729254D-06 -0.58816854D-03
  0.18341521D-03  0.91962471D-04 -0.11759946D-05  0.51953232D-02 -0.57919926D-03
 -0.17975436D-04  0.20908363D-06 -0.16226486D+01 -0.29868859D+01 -0.48336229D+01
 -0.64014633D+01 -0.55147653D+01 -0.17139899D+01  0.12723430D-02  0.57751610D-02
  0.87715710D-02 -0.20479117D-02 -0.10716875D-01 -0.41709806D-02  0.79091485D-04
  0.99161309D-04  0.10120963D-03  0.72554359D-04  0.31166518D-04  0.56730099D-05
 -0.13455657D-02 -0.16870091D-02 -0.17218567D-02 -0.12343510D-02 -0.53022896D-03
 -0.96513642D-04 -0.12706775D-03 -0.15931177D-03 -0.16260259D-03 -0.11656525D-03
 -0.50071878D-04 -0.91142123D-05 -0.16555480D-02  0.20255704D-03  0.15136821D-02
 -0.35937217D-06  0.20873249D-05  0.14652011D-05 -0.24794288D-04  0.14401153D-03
  0.10108912D-03 -0.15293344D-06  0.88827629D-06  0.62352698D-06 -0.89967689D-03
  0.11163223D-03 -0.25825602D-04 -0.25644296D-06 -0.10071422D-02 -0.12559772D-02
 -0.22284928D-03  0.46433726D-05 -0.54908034D-05  0.67190969D-05  0.51680626D-05
 -0.12470969D-05 -0.11055569D-04 -0.10617404D-04  0.15911019D-03 -0.35933401D-06
  0.56024042D-03 -0.26217905D-02 -0.72111651D-03  0.33746519D-02  0.32050351D-05
 -0.14998794D-04  0.61072028D-03  0.81588769D-03 -0.78771983D-03 -0.10523491D-02
  0.35102134D-05  0.46894461D-05 -0.46279295D-03  0.59426170D-03 -0.24330415D-05
  0.13860937D-03  0.15916220D-03 -0.17462497D-05  0.19824479D-03 -0.13074386D-03
  0.64992617D-06 -0.35175325D-04 -0.21657422D-04 -0.76139670D-05 -0.13632045D-05
 -0.36042425D-04 -0.22191295D-04 -0.78016575D-05 -0.13968086D-05  0.71217750D-04
  0.43848718D-04  0.15415625D-04  0.27600131D-05  0.95117560D-04  0.58563814D-04
  0.20588920D-04  0.36862399D-05 -0.12581357D-06 -0.77463325D-07 -0.27233306D-07
 -0.48758505D-08  0.19726868D-05  0.12145818D-05  0.42700308D-06  0.76450622D-07
  0.96836431D-06  0.87866477D-05 -0.97550120D-05 -0.25364631D-04  0.14440412D-06
 -0.25492502D-06  0.22319668D-05 -0.14947632D-05 -0.73720360D-06  0.38654394D-04
 -0.28953354D-06 -0.59540480D-07  0.46027286D-03  0.17595935D-03  0.10897480D-04
 -0.25839581D-02  0.10839056D-02 -0.76511802D-05  0.12031395D-02 -0.16117837D-02
 -0.25041260D-04  0.50938530D-04  0.75977888D-02  0.13985609D-01  0.22632655D-01
  0.29973814D-01  0.25821994D-01  0.80254797D-02 -0.15548185D-04 -0.70573164D-04
 -0.10718966D-03  0.25025729D-04  0.13096150D-03  0.50969886D-04  0.51066385D-03
  0.64024712D-03  0.65347238D-03  0.46845610D-03  0.20123043D-03  0.36628482D-04
 -0.12394376D-03 -0.15539506D-03 -0.15860497D-03 -0.11369947D-03 -0.48840851D-04
 -0.88901376D-05  0.10266908D-05  0.12872183D-05  0.13138077D-05  0.94183203D-06
  0.40457423D-06  0.73641645D-07 -0.59547936D-04  0.72857165D-05  0.54445202D-04